                         Program Version 4.2.1 -  RELEASE  -
|  1> ! RHF ma-def2-TZVPP VeryTightSCF OPT FREQ
|  2> %maxcore 9000
|  3>
|  4> *xyz 0 1
|  5>   F      4.903665    0.000000   -0.000000
|  6>   Li     4.546353    1.654742    0.000000
|  7>   F      3.755960    3.151841    0.000000
|  8>   Li     2.418965    4.190333    0.000000
|  9>   F      0.851472    4.829714    0.000000
| 10>   Li    -0.840185    4.765370    0.000000
| 11>   F     -2.451786    4.247058   -0.000000
| 12>   Li    -3.706195    3.110235   -0.000000
| 13>   F     -4.607473    1.677168   -0.000000
| 14>   Li    -4.837888   -0.000000   -0.000000
| 15>   F     -4.607473   -1.677168    0.000000
| 16>   Li    -3.706195   -3.110235    0.000000
| 17>   F     -2.451786   -4.247058    0.000000
| 18>   Li    -0.840185   -4.765370    0.000000
| 19>   F      0.851472   -4.829714   -0.000000
| 20>   Li     2.418965   -4.190333   -0.000000
| 21>   F      3.755960   -3.151841   -0.000000
| 22>   Li     4.546353   -1.654742   -0.000000
| 23> *
| 24>
| 25>                          ****END OF INPUT****
 Total Charge           Charge          ....    0
 Multiplicity           Mult            ....    1
 Number of Electrons    NEL             ....  108
FINAL SINGLE POINT ENERGY      -963.533470614612
FINAL SINGLE POINT ENERGY      -963.533505437664
FINAL SINGLE POINT ENERGY      -963.533630905283
                    ***********************HURRAY********************

CARTESIAN COORDINATES (ANGSTROEM)
---------------------------------
  F      4.882484    0.000000   -0.000000
  Li     4.527875    1.648037   -0.000000
  F      3.739820    3.138252    0.000000
  Li     2.409179    4.173223    0.000000
  F      0.847809    4.808752    0.000000
  Li    -0.836775    4.745877    0.000000
  F     -2.441218    4.228636    0.000000
  Li    -3.691151    3.097514   -0.000000
  F     -4.587650    1.669906   -0.000000
  Li    -4.818265   -0.000000   -0.000000
  F     -4.587650   -1.669906   -0.000000
  Li    -3.691151   -3.097514    0.000000
  F     -2.441218   -4.228636    0.000000
  Li    -0.836775   -4.745877    0.000000
  F      0.847809   -4.808752    0.000000
  Li     2.409179   -4.173223    0.000000
  F      3.739820   -3.138252   -0.000000
  Li     4.527875   -1.648037   -0.000000

 Multiplicity           Mult            ....    1
 Number of Electrons    NEL             ....  108
 Basis Dimension        Dim             ....  522

ORBITAL ENERGIES
----------------

  NO   OCC          E(Eh)            E(eV)
   0   2.0000     -26.179607      -712.3833
   1   2.0000     -26.179607      -712.3833
   2   2.0000     -26.179606      -712.3833
   3   2.0000     -26.179606      -712.3833
   4   2.0000     -26.179605      -712.3833
   5   2.0000     -26.179605      -712.3833
   6   2.0000     -26.179605      -712.3833
   7   2.0000     -26.179604      -712.3832
   8   2.0000     -26.179604      -712.3832
   9   2.0000      -2.371012       -64.5185
  10   2.0000      -2.370943       -64.5166
  11   2.0000      -2.370943       -64.5166
  12   2.0000      -2.370767       -64.5119
  13   2.0000      -2.370767       -64.5118
  14   2.0000      -2.370566       -64.5064
  15   2.0000      -2.370566       -64.5064
  16   2.0000      -2.370436       -64.5028
  17   2.0000      -2.370436       -64.5028
  18   2.0000      -1.456583       -39.6356
  19   2.0000      -1.456583       -39.6356
  20   2.0000      -1.455022       -39.5932
  21   2.0000      -1.455022       -39.5932
  22   2.0000      -1.452603       -39.5273
  23   2.0000      -1.452602       -39.5273
  24   2.0000      -1.450451       -39.4688
  25   2.0000      -1.450451       -39.4688
  26   2.0000      -1.449595       -39.4455
  27   2.0000      -0.596975       -16.2445
  28   2.0000      -0.593999       -16.1635
  29   2.0000      -0.593997       -16.1635
  30   2.0000      -0.586432       -15.9576
  31   2.0000      -0.586429       -15.9575
  32   2.0000      -0.577787       -15.7224
  33   2.0000      -0.577786       -15.7224
  34   2.0000      -0.572151       -15.5690
  35   2.0000      -0.572151       -15.5690
  36   2.0000      -0.555488       -15.1156
  37   2.0000      -0.554371       -15.0852
  38   2.0000      -0.554370       -15.0852
  39   2.0000      -0.553455       -15.0603
  40   2.0000      -0.552522       -15.0349
  41   2.0000      -0.552521       -15.0349
  42   2.0000      -0.551552       -15.0085
  43   2.0000      -0.551551       -15.0085
  44   2.0000      -0.550136       -14.9700
  45   2.0000      -0.550135       -14.9699
  46   2.0000      -0.548338       -14.9210
  47   2.0000      -0.548338       -14.9210
  48   2.0000      -0.547377       -14.8949
  49   2.0000      -0.547377       -14.8949
  50   2.0000      -0.546236       -14.8638
  51   2.0000      -0.546235       -14.8638
  52   2.0000      -0.545549       -14.8451
  53   2.0000      -0.545549       -14.8451
  54   0.0000       0.011743         0.3196
  55   0.0000       0.017974         0.4891
  56   0.0000       0.017974         0.4891
  57   0.0000       0.024806         0.6750
  58   0.0000       0.024807         0.6750

MULLIKEN ATOMIC CHARGES
-----------------------
   0 F :   -0.994591
   1 Li:    0.994537
   2 F :   -0.994481
   3 Li:    0.994525
   4 F :   -0.994556
   5 Li:    0.994525
   6 F :   -0.994518
   7 Li:    0.994523
   8 F :   -0.994531
   9 Li:    0.994543
  10 F :   -0.994531
  11 Li:    0.994523
  12 F :   -0.994518
  13 Li:    0.994525
  14 F :   -0.994556
  15 Li:    0.994525
  16 F :   -0.994481
  17 Li:    0.994537
Sum of atomic charges:   -0.0000000

LOEWDIN ATOMIC CHARGES
----------------------
   0 F :   -0.375980
   1 Li:    0.375981
   2 F :   -0.375983
   3 Li:    0.375981
   4 F :   -0.375981
   5 Li:    0.375982
   6 F :   -0.375982
   7 Li:    0.375982
   8 F :   -0.375982
   9 Li:    0.375981
  10 F :   -0.375982
  11 Li:    0.375982
  12 F :   -0.375982
  13 Li:    0.375982
  14 F :   -0.375981
  15 Li:    0.375981
  16 F :   -0.375983
  17 Li:    0.375981

  Mayer bond orders larger than 0.100000
B(  0-F ,  2-F ) :   0.1300 B(  0-F , 16-F ) :   0.1300 B(  2-F ,  4-F ) :   0.1300
B(  4-F ,  6-F ) :   0.1300 B(  6-F ,  8-F ) :   0.1300 B(  8-F , 10-F ) :   0.1300
B( 10-F , 12-F ) :   0.1300 B( 12-F , 14-F ) :   0.1300 B( 14-F , 16-F ) :   0.1300

FINAL SINGLE POINT ENERGY      -963.533631024929

DIPOLE MOMENT
-------------
                                X             Y             Z
Electronic contribution:     -0.00003       0.00000       0.00000
Nuclear contribution   :      0.00001      -0.00000      -0.00000
                        -----------------------------------------
Total Dipole Moment    :     -0.00002       0.00000       0.00000
                        -----------------------------------------
Magnitude (a.u.)       :      0.00002
Magnitude (Debye)      :      0.00006

VIBRATIONAL FREQUENCIES
-----------------------

Scaling factor for frequencies =  1.000000000  (already applied!)

   0:         0.00 cm**-1
   1:         0.00 cm**-1
   2:         0.00 cm**-1
   3:         0.00 cm**-1
   4:         0.00 cm**-1
   5:         0.00 cm**-1
   6:        13.26 cm**-1
   7:        13.26 cm**-1
   8:        16.39 cm**-1
   9:        16.39 cm**-1
  10:        35.93 cm**-1
  11:        35.93 cm**-1
  12:        37.96 cm**-1
  13:        37.96 cm**-1
  14:        59.72 cm**-1
  15:        59.72 cm**-1
  16:        60.40 cm**-1
  17:        60.40 cm**-1
  18:       140.46 cm**-1
  19:       140.46 cm**-1
  20:       152.37 cm**-1
  21:       152.37 cm**-1
  22:       152.55 cm**-1
  23:       176.12 cm**-1
  24:       176.13 cm**-1
  25:       186.45 cm**-1
  26:       186.46 cm**-1
  27:       204.77 cm**-1
  28:       204.79 cm**-1
  29:       216.23 cm**-1
  30:       216.26 cm**-1
  31:       229.94 cm**-1
  32:       229.95 cm**-1
  33:       270.84 cm**-1
  34:       270.84 cm**-1
  35:       274.80 cm**-1
  36:       274.81 cm**-1
  37:       297.15 cm**-1
  38:       302.01 cm**-1
  39:       334.85 cm**-1
  40:       334.86 cm**-1
  41:       439.20 cm**-1
  42:       439.20 cm**-1
  43:       509.73 cm**-1
  44:       509.73 cm**-1
  45:       837.19 cm**-1
  46:       837.19 cm**-1
  47:       864.98 cm**-1
  48:       864.99 cm**-1
  49:       886.36 cm**-1
  50:       889.88 cm**-1
  51:       889.88 cm**-1
  52:       895.09 cm**-1
  53:       895.10 cm**-1

IR SPECTRUM
-----------

 Mode    freq (cm**-1)   T**2         TX         TY         TZ
-------------------------------------------------------------------
   6:        13.26    0.000000  ( -0.000000   0.000070  -0.000000)
   7:        13.26    0.000000  (  0.000023   0.000000  -0.000000)
   8:        16.39    0.000000  ( -0.000000   0.000000  -0.000000)
   9:        16.39    0.000000  ( -0.000000  -0.000000   0.000015)
  10:        35.93    0.000000  ( -0.000000  -0.000146  -0.000000)
  11:        35.93    0.000000  (  0.000195   0.000000   0.000000)
  12:        37.96    0.000000  (  0.000000  -0.000000  -0.000000)
  13:        37.96    0.000000  (  0.000000   0.000000  -0.000008)
  14:        59.72    0.000000  (  0.000000   0.000000  -0.000000)
  15:        59.72    0.000000  ( -0.000000   0.000000   0.000127)
  16:        60.40    0.000000  ( -0.000000   0.000055  -0.000000)
  17:        60.40    0.000000  (  0.000414  -0.000000   0.000000)
  18:       140.46    0.000001  (  0.000995   0.000001  -0.000000)
  19:       140.46    0.000005  ( -0.000001   0.002322   0.000000)
  20:       152.37    0.000000  (  0.000000  -0.000000   0.000294)
  21:       152.37    0.000000  ( -0.000000  -0.000000  -0.000000)
  22:       152.55    0.000000  ( -0.000108   0.000000   0.000000)
  23:       176.12    0.000018  ( -0.000000   0.004274  -0.000000)
  24:       176.13    0.000035  (  0.005942   0.000000   0.000000)
  25:       186.45    0.000000  ( -0.000000   0.000000   0.000000)
  26:       186.46    0.000000  ( -0.000000  -0.000000   0.000220)
  27:       204.77   55.102749  (  7.423123  -0.000004   0.000000)
  28:       204.79   55.107380  ( -0.000004  -7.423435  -0.000000)
  29:       216.23    0.000000  (  0.000000  -0.000214   0.000000)
  30:       216.26    0.000003  ( -0.001688  -0.000000   0.000000)
  31:       229.94    0.000000  ( -0.000000   0.000000   0.000000)
  32:       229.95    0.000000  (  0.000000   0.000000  -0.000226)
  33:       270.84    0.000000  (  0.000000  -0.000000   0.000417)
  34:       270.84    0.000000  ( -0.000000  -0.000000   0.000000)
  35:       274.80  480.460675  ( 21.919413   0.000016   0.000000)
  36:       274.81  480.337198  ( -0.000016  21.916596   0.000000)
  37:       297.15  1081.739366  ( -0.000000   0.000000  32.889806)
  38:       302.01    0.000000  ( -0.000325   0.000000   0.000000)
  39:       334.85    0.000000  ( -0.000000  -0.000471  -0.000000)
  40:       334.86    0.000000  (  0.000551  -0.000000   0.000000)
  41:       439.20    0.000000  (  0.000000   0.000428   0.000000)
  42:       439.20    0.000004  ( -0.002077   0.000000   0.000000)
  43:       509.73    0.000000  (  0.000647  -0.000001  -0.000000)
  44:       509.73    0.000005  ( -0.000000  -0.002228  -0.000000)
  45:       837.19    0.000009  ( -0.003052   0.000000   0.000000)
  46:       837.19    0.000000  (  0.000000   0.000543  -0.000000)
  47:       864.98    0.000011  (  0.000000   0.003245   0.000000)
  48:       864.99    0.000032  ( -0.005639   0.000000  -0.000000)
  49:       886.36    0.000001  (  0.000000   0.000792   0.000000)
  50:       889.88    0.000130  (  0.000000   0.011389   0.000000)
  51:       889.88    0.000269  (  0.016405   0.000000   0.000000)
  52:       895.09  1011.391117  ( 31.802376   0.000029  -0.000000)
  53:       895.10  1011.611678  (  0.000029 -31.805843   0.000000)

--------------------------
THERMOCHEMISTRY AT 298.15K
--------------------------

Temperature         ... 298.15 K
Pressure            ... 1.00 atm
Total Mass          ... 233.45 AMU

Throughout the following assumptions are being made:
  (1) The electronic state is orbitally nondegenerate
  (2) There are no thermally accessible electronically excited states
  (3) Hindered rotations indicated by low frequency modes are not
      treated as such but are treated as vibrations and this may
      cause some error
  (4) All equations used are the standard statistical mechanics
      equations for an ideal gas
  (5) All vibrations are strictly harmonic

freq.      13.26  E(vib)   ...       0.57
freq.      13.26  E(vib)   ...       0.57
freq.      16.39  E(vib)   ...       0.57
freq.      16.39  E(vib)   ...       0.57
freq.      35.93  E(vib)   ...       0.54
freq.      35.93  E(vib)   ...       0.54
freq.      37.96  E(vib)   ...       0.54
freq.      37.96  E(vib)   ...       0.54
freq.      59.72  E(vib)   ...       0.51
freq.      59.72  E(vib)   ...       0.51
freq.      60.40  E(vib)   ...       0.51
freq.      60.40  E(vib)   ...       0.51
freq.     140.46  E(vib)   ...       0.41
freq.     140.46  E(vib)   ...       0.41
freq.     152.37  E(vib)   ...       0.40
freq.     152.37  E(vib)   ...       0.40
freq.     152.55  E(vib)   ...       0.40
freq.     176.12  E(vib)   ...       0.38
freq.     176.13  E(vib)   ...       0.38
freq.     186.45  E(vib)   ...       0.37
freq.     186.46  E(vib)   ...       0.37
freq.     204.77  E(vib)   ...       0.35
freq.     204.79  E(vib)   ...       0.35
freq.     216.23  E(vib)   ...       0.34
freq.     216.26  E(vib)   ...       0.34
freq.     229.94  E(vib)   ...       0.32
freq.     229.95  E(vib)   ...       0.32
freq.     270.84  E(vib)   ...       0.29
freq.     270.84  E(vib)   ...       0.29
freq.     274.80  E(vib)   ...       0.28
freq.     274.81  E(vib)   ...       0.28
freq.     297.15  E(vib)   ...       0.27
freq.     302.01  E(vib)   ...       0.26
freq.     334.85  E(vib)   ...       0.24
freq.     334.86  E(vib)   ...       0.24
freq.     439.20  E(vib)   ...       0.17
freq.     439.20  E(vib)   ...       0.17
freq.     509.73  E(vib)   ...       0.14
freq.     509.73  E(vib)   ...       0.14
freq.     837.19  E(vib)   ...       0.04
freq.     837.19  E(vib)   ...       0.04
freq.     864.98  E(vib)   ...       0.04
freq.     864.99  E(vib)   ...       0.04
freq.     886.36  E(vib)   ...       0.04
freq.     889.88  E(vib)   ...       0.04
freq.     889.88  E(vib)   ...       0.04
freq.     895.09  E(vib)   ...       0.03
freq.     895.10  E(vib)   ...       0.03

------------
INNER ENERGY
------------

The inner energy is: U= E(el) + E(ZPE) + E(vib) + E(rot) + E(trans)
    E(el)   - is the total energy from the electronic structure calculation
              = E(kin-el) + E(nuc-el) + E(el-el) + E(nuc-nuc)
    E(ZPE)  - the the zero temperature vibrational energy from the frequency calculation
    E(vib)  - the the finite temperature correction to E(ZPE) due to population
              of excited vibrational states
    E(rot)  - is the rotational thermal energy
    E(trans)- is the translational thermal energy

Summary of contributions to the inner energy U:
Electronic energy                ...   -963.53363102 Eh
Zero point energy                ...      0.03492725 Eh      21.92 kcal/mol
Thermal vibrational correction   ...      0.02409717 Eh      15.12 kcal/mol
Thermal rotational correction    ...      0.00141627 Eh       0.89 kcal/mol
Thermal translational correction ...      0.00141627 Eh       0.89 kcal/mol
-----------------------------------------------------------------------
Total thermal energy                   -963.47177407 Eh

Summary of corrections to the electronic energy:
(perhaps to be used in another calculation)
Total thermal correction                  0.02692971 Eh      16.90 kcal/mol
Non-thermal (ZPE) correction              0.03492725 Eh      21.92 kcal/mol
-----------------------------------------------------------------------
Total correction                          0.06185696 Eh      38.82 kcal/mol

--------
ENTHALPY
--------

The enthalpy is H = U + kB*T
                kB is Boltzmann's constant
Total free energy                 ...   -963.47177407 Eh
Thermal Enthalpy correction       ...      0.00094421 Eh       0.59 kcal/mol
-----------------------------------------------------------------------
Total Enthalpy                    ...   -963.47082986 Eh

Note: Rotational entropy computed according to Herzberg
Infrared and Raman Spectra, Chapter V,1, Van Nostrand Reinhold, 1945
Point Group:  C2v, Symmetry Number:   2
Rotational constants in cm-1:     0.006101     0.006100     0.003050

Vibrational entropy computed according to the QRRHO of S. Grimme
Chem.Eur.J. 2012 18 9955

-------
ENTROPY
-------

The entropy contributions are T*S = T*(S(el)+S(vib)+S(rot)+S(trans))
     S(el)   - electronic entropy
     S(vib)  - vibrational entropy
     S(rot)  - rotational entropy
     S(trans)- translational entropy
The entropies will be listed as mutliplied by the temperature to get
units of energy

Electronic entropy                ...      0.00000000 Eh      0.00 kcal/mol
Vibrational entropy               ...      0.04702552 Eh     29.51 kcal/mol
Rotational entropy                ...      0.01640565 Eh     10.29 kcal/mol
Translational entropy             ...      0.02007196 Eh     12.60 kcal/mol
-----------------------------------------------------------------------
Final entropy term                ...      0.08350313 Eh     52.40 kcal/mol

In case the symmetry of your molecule has not been determined correctly
or in case you have a reason to use a different symmetry number we print
out the resulting rotational entropy values for sn=1,12 :
 --------------------------------------------------------
|  sn= 1 | S(rot)=       0.01706010 Eh     10.71 kcal/mol|
|  sn= 2 | S(rot)=       0.01640565 Eh     10.29 kcal/mol|
|  sn= 3 | S(rot)=       0.01602281 Eh     10.05 kcal/mol|
|  sn= 4 | S(rot)=       0.01575119 Eh      9.88 kcal/mol|
|  sn= 5 | S(rot)=       0.01554050 Eh      9.75 kcal/mol|
|  sn= 6 | S(rot)=       0.01536836 Eh      9.64 kcal/mol|
|  sn= 7 | S(rot)=       0.01522281 Eh      9.55 kcal/mol|
|  sn= 8 | S(rot)=       0.01509673 Eh      9.47 kcal/mol|
|  sn= 9 | S(rot)=       0.01498552 Eh      9.40 kcal/mol|
|  sn=10 | S(rot)=       0.01488605 Eh      9.34 kcal/mol|
|  sn=11 | S(rot)=       0.01479606 Eh      9.28 kcal/mol|
|  sn=12 | S(rot)=       0.01471390 Eh      9.23 kcal/mol|
 --------------------------------------------------------

-------------------
GIBBS FREE ENERGY
-------------------

The Gibbs free energy is G = H - T*S

                             ****ORCA TERMINATED NORMALLY****
TOTAL RUN TIME: 1 days 6 hours 32 minutes 46 seconds 269 msec
